ITEM: TIMESTEP
0
ITEM: NUMBER OF ATOMS
6
ITEM: BOX BOUNDS pp pp pp
14 26
14 26
14 26
ITEM: ATOMS id type xu yu zu vx vy vz
1  1  15  16  17  -0.00301182  0.00150336   0.000230129
2  2  16  17  18  -0.00492078  0.00225565   0.00211792
3  1  17  18  19  0.000326654  0.00231905   -0.00449507
4  1  18  19  20  0.000735909  0.000597856  -0.00325762
5  1  19  20  21  0.00175372   0.00346997   -0.00254568
6  2  20  21  22  0.0051601    -0.00469803  -0.00471852
ITEM: TIMESTEP
1000
ITEM: NUMBER OF ATOMS
6
ITEM: BOX BOUNDS pp pp pp
16 26
16 26
16 26
ITEM: ATOMS id type xu yu zu vx vy vz
1  1  19  20  21  -0.00325387  0.00161197   0.000295406
2  2  20  21  22  -0.00398831  0.00327627   0.00228066
3  1  21  22  23  0.000197121  0.0019148    -0.00456557
4  1  22  23  24  0.00080266   0.000516573  -0.00332678
5  1  23  24  25  0.00170076   0.00321602   -0.00231505
6  2  24  25  26  0.00597415   -0.00476891  -0.00570422
